# vtk DataFile Version 3.0
vtk output
ASCII
DATASET UNSTRUCTURED_GRID
POINTS 13289 double
-3.333300e-01	2.220446e-16	0.0	-2.932630e-01	2.220446e-16	0.0	-2.579639e-01	2.220446e-16	0.0	-2.268587e-01	2.220446e-16	0.0	-1.994419e-01	2.220446e-16	0.0	-1.752676e-01	2.220446e-16	0.0	-1.539429e-01	2.220446e-16	0.0	-1.351210e-01	2.220446e-16	0.0	-1.184959e-01	2.220446e-16	0.0	-1.037973e-01	2.220446e-16	0.0	-9.078621e-02	2.220446e-16	0.0	-7.925117e-02	2.220446e-16	0.0	-6.900461e-02	2.220446e-16	0.0	-5.987994e-02	2.220446e-16	0.0	-5.172879e-02	2.220446e-16	0.0	-4.441866e-02	2.220446e-16	0.0	-3.783070e-02	2.220446e-16	0.0	-3.185779e-02	2.220446e-16	0.0	-2.640282e-02	2.220446e-16	0.0	-2.137712e-02	2.220446e-16	0.0	-1.669897e-02	2.220446e-16	0.0	-1.229231e-02	2.220446e-16	0.0	-8.085507e-03	2.220446e-16	0.0	-4.010155e-03	2.220446e-16	0.0	0.000000e+00	2.220446e-16	0.0	4.011888e-03	2.220446e-16	0.0	8.056205e-03	2.220446e-16	0.0	1.213423e-02	2.220446e-16	0.0	1.624727e-02	2.220446e-16	0.0	2.039667e-02	2.220446e-16	0.0	2.458382e-02	2.220446e-16	0.0	2.881016e-02	2.220446e-16	0.0	3.307715e-02	2.220446e-16	0.0	3.738632e-02	2.220446e-16	0.0	4.173924e-02	2.220446e-16	0.0	4.613751e-02	2.220446e-16	0.0	5.058283e-02	2.220446e-16	0.0	5.507691e-02	2.220446e-16	0.0	5.962155e-02	2.220446e-16	0.0	6.421860e-02	2.220446e-16	0.0	6.886998e-02	2.220446e-16	0.0	7.357766e-02	2.220446e-16	0.0	7.834372e-02	2.220446e-16	0.0	8.317028e-02	2.220446e-16	0.0	8.805957e-02	2.220446e-16	0.0	9.301388e-02	2.220446e-16	0.0	9.803561e-02	2.220446e-16	0.0	1.031273e-01	2.220446e-16	0.0	1.082914e-01	2.220446e-16	0.0	1.135307e-01	2.220446e-16	0.0	1.188480e-01	2.220446e-16	0.0	1.242462e-01	2.220446e-16	0.0	1.297284e-01	2.220446e-16	0.0	1.352978e-01	2.220446e-16	0.0	1.409576e-01	2.220446e-16	0.0	1.467113e-01	2.220446e-16	0.0	1.525626e-01	2.220446e-16	0.0	1.585153e-01	2.220446e-16	0.0	1.645732e-01	2.220446e-16	0.0	1.707407e-01	2.220446e-16	0.0	1.770220e-01	2.220446e-16	0.0	1.834217e-01	2.220446e-16	0.0	1.899446e-01	2.220446e-16	0.0	1.965957e-01	2.220446e-16	0.0	2.033804e-01	2.220446e-16	0.0	2.103042e-01	2.220446e-16	0.0	2.173729e-01	2.220446e-16	0.0	2.245927e-01	2.220446e-16	0.0	2.319702e-01	2.220446e-16	0.0	2.395121e-01	2.220446e-16	0.0	2.472258e-01	2.220446e-16	0.0	2.551188e-01	2.220446e-16	0.0	2.631993e-01	2.220446e-16	0.0	2.714757e-01	2.220446e-16	0.0	2.799573e-01	2.220446e-16	0.0	2.886535e-01	2.220446e-16	0.0	2.975746e-01	2.220446e-16	0.0	3.067315e-01	2.220446e-16	0.0	3.161355e-01	2.220446e-16	0.0	3.257991e-01	2.220446e-16	0.0	3.357352e-01	2.220446e-16	0.0	3.459577e-01	2.220446e-16	0.0	3.564816e-01	2.220446e-16	0.0	3.673226e-01	2.220446e-16	0.0	3.784979e-01	2.220446e-16	0.0	3.900256e-01	2.220446e-16	0.0	4.019253e-01	2.220446e-16	0.0	4.142179e-01	2.220446e-16	0.0	4.269261e-01	2.220446e-16	0.0	4.400740e-01	2.220446e-16	0.0	4.536880e-01	2.220446e-16	0.0	4.677963e-01	2.220446e-16	0.0	4.824296e-01	2.220446e-16	0.0	4.976210e-01	2.220446e-16	0.0	5.134066e-01	2.220446e-16	0.0	5.298255e-01	2.220446e-16	0.0	5.469203e-01	2.220446e-16	0.0	5.647377e-01	2.220446e-16	0.0	5.833284e-01	2.220446e-16	0.0	6.027481e-01	2.220446e-16	0.0	6.230582e-01	2.220446e-16	0.0	6.443259e-01	2.220446e-16	0.0	6.666254e-01	2.220446e-16	0.0	6.900390e-01	2.220446e-16	0.0	7.146577e-01	2.220446e-16	0.0	7.405826e-01	2.220446e-16	0.0	7.679266e-01	2.220446e-16	0.0	7.968158e-01	2.220446e-16	0.0	8.273920e-01	2.220446e-16	0.0	8.598143e-01	2.220446e-16	0.0	8.942629e-01	2.220446e-16	0.0	9.309419e-01	2.220446e-16	0.0	9.700840e-01	2.220446e-16	0.0	1.011955e+00	2.220446e-16	0.0	1.054914e+00	2.220446e-16	0.0	1.097872e+00	2.220446e-16	0.0	1.140831e+00	2.220446e-16	0.0	1.183789e+00	2.220446e-16	0.0	1.226748e+00	2.220446e-16	0.0	1.269706e+00	2.220446e-16	0.0	1.312665e+00	2.220446e-16	0.0	1.355623e+00	2.220446e-16	0.0	1.398581e+00	2.220446e-16	0.0	1.441540e+00	2.220446e-16	0.0	1.484498e+00	2.220446e-16	0.0	1.527457e+00	2.220446e-16	0.0	1.570415e+00	2.220446e-16	0.0	1.613374e+00	2.220446e-16	0.0	1.656332e+00	2.220446e-16	0.0	1.699291e+00	2.220446e-16	0.0	1.742249e+00	2.220446e-16	0.0	1.785208e+00	2.220446e-16	0.0	1.828166e+00	2.220446e-16	0.0	1.871125e+00	2.220446e-16	0.0	1.914083e+00	2.220446e-16	0.0	1.957042e+00	2.220446e-16	0.0	2.000000e+00	2.220446e-16	0.0	-3.333300e-01	2.004654e-06	0.0	-2.932630e-01	2.004654e-06	0.0	-2.579639e-01	2.004654e-06	0.0	-2.268587e-01	2.004654e-06	0.0	-1.994419e-01	2.004654e-06	0.0	-1.752676e-01	2.004654e-06	0.0	-1.539429e-01	2.004654e-06	0.0	-1.351210e-01	2.004654e-06	0.0	-1.184959e-01	2.004654e-06	0.0	-1.037973e-01	2.004654e-06	0.0	-9.078621e-02	2.004654e-06	0.0	-7.925117e-02	2.004654e-06	0.0	-6.900461e-02	2.004654e-06	0.0	-5.987994e-02	2.004654e-06	0.0	-5.172879e-02	2.004654e-06	0.0	-4.441866e-02	2.004654e-06	0.0	-3.783070e-02	2.004654e-06	0.0	-3.185779e-02	2.004654e-06	0.0	-2.640282e-02	2.004654e-06	0.0	-2.137712e-02	2.004654e-06	0.0	-1.669897e-02	2.004654e-06	0.0	-1.229231e-02	2.004654e-06	0.0	-8.085507e-03	2.004654e-06	0.0	-4.010155e-03	2.004654e-06	0.0	-4.489824e-33	2.004654e-06	0.0	4.011888e-03	2.004654e-06	0.0	8.056205e-03	2.004654e-06	0.0	1.213423e-02	2.004654e-06	0.0	1.624727e-02	2.004654e-06	0.0	2.039667e-02	2.004654e-06	0.0	2.458382e-02	2.004654e-06	0.0	2.881016e-02	2.004654e-06	0.0	3.307715e-02	2.004654e-06	0.0	3.738632e-02	2.004654e-06	0.0	4.173924e-02	2.004654e-06	0.0	4.613751e-02	2.004654e-06	0.0	5.058283e-02	2.004654e-06	0.0	5.507691e-02	2.004654e-06	0.0	5.962155e-02	2.004654e-06	0.0	6.421860e-02	2.004654e-06	0.0	6.886998e-02	2.004654e-06	0.0	7.357766e-02	2.004654e-06	0.0	7.834372e-02	2.004654e-06	0.0	8.317028e-02	2.004654e-06	0.0	8.805957e-02	2.004654e-06	0.0	9.301388e-02	2.004654e-06	0.0	9.803561e-02	2.004654e-06	0.0	1.031273e-01	2.004654e-06	0.0	1.082914e-01	2.004654e-06	0.0	1.135307e-01	2.004654e-06	0.0	1.188480e-01	2.004654e-06	0.0	1.242462e-01	2.004654e-06	0.0	1.297284e-01	2.004654e-06	0.0	1.352978e-01	2.004654e-06	0.0	1.409576e-01	2.004654e-06	0.0	1.467113e-01	2.004654e-06	0.0	1.525626e-01	2.004654e-06	0.0	1.585153e-01	2.004654e-06	0.0	1.645732e-01	2.004654e-06	0.0	1.707407e-01	2.004654e-06	0.0	1.770220e-01	2.004654e-06	0.0	1.834217e-01	2.004654e-06	0.0	1.899446e-01	2.004654e-06	0.0	1.965957e-01	2.004654e-06	0.0	2.033804e-01	2.004654e-06	0.0	2.103042e-01	2.004654e-06	0.0	2.173729e-01	2.004654e-06	0.0	2.245927e-01	2.004654e-06	0.0	2.319702e-01	2.004654e-06	0.0	2.395121e-01	2.004654e-06	0.0	2.472258e-01	2.004654e-06	0.0	2.551188e-01	2.004654e-06	0.0	2.631993e-01	2.004654e-06	0.0	2.714757e-01	2.004654e-06	0.0	2.799573e-01	2.004654e-06	0.0	2.886535e-01	2.004654e-06	0.0	2.975746e-01	2.004654e-06	0.0	3.067315e-01	2.004654e-06	0.0	3.161355e-01	2.004654e-06	0.0	3.257991e-01	2.004654e-06	0.0	3.357352e-01	2.004654e-06	0.0	3.459577e-01	2.004654e-06	0.0	3.564816e-01	2.004654e-06	0.0	3.673226e-01	2.004654e-06	0.0	3.784979e-01	2.004654e-06	0.0	3.900256e-01	2.004654e-06	0.0	4.019253e-01	2.004654e-06	0.0	4.142179e-01	2.004654e-06	0.0	4.269261e-01	2.004654e-06	0.0	4.400740e-01	2.004654e-06	0.0	4.536880e-01	2.004654e-06	0.0	4.677963e-01	2.004654e-06	0.0	4.824296e-01	2.004654e-06	0.0	4.976210e-01	2.004654e-06	0.0	5.134066e-01	2.004654e-06	0.0	5.298255e-01	2.004654e-06	0.0	5.469203e-01	2.004654e-06	0.0	5.647377e-01	2.004654e-06	0.0	5.833284e-01	2.004654e-06	0.0	6.027481e-01	2.004654e-06	0.0	6.230582e-01	2.004654e-06	0.0	6.443259e-01	2.004654e-06	0.0	6.666254e-01	2.004654e-06	0.0	6.900390e-01	2.004654e-06	0.0	7.146577e-01	2.004654e-06	0.0	7.405826e-01	2.004654e-06	0.0	7.679266e-01	2.004654e-06	0.0	7.968158e-01	2.004654e-06	0.0	8.273920e-01	2.004654e-06	0.0	8.598143e-01	2.004654e-06	0.0	8.942629e-01	2.004654e-06	0.0	9.309419e-01	2.004654e-06	0.0	9.700840e-01	2.004654e-06	0.0	1.011955e+00	2.004654e-06	0.0	1.054914e+00	2.004654e-06	0.0	1.097872e+00	2.004654e-06	0.0	1.140831e+00	2.004654e-06	0.0	1.183789e+00	2.004654e-06	0.0	1.226748e+00	2.004654e-06	0.0	1.269706e+00	2.004654e-06	0.0	1.312665e+00	2.004654e-06	0.0	1.355623e+00	2.004654e-06	0.0	1.398581e+00	2.004654e-06	0.0	1.441540e+00	2.004654e-06	0.0	1.484498e+00	2.004654e-06	0.0	1.527457e+00	2.004654e-06	0.0	1.570415e+00	2.004654e-06	0.0	1.613374e+00	2.004654e-06	0.0	1.656332e+00	2.004654e-06	0.0	1.699291e+00	2.004654e-06	0.0	1.742249e+00	2.004654e-06	0.0	1.785208e+00	2.004654e-06	0.0	1.828166e+00	2.004654e-06	0.0	1.871125e+00	2.004654e-06	0.0	1.914083e+00	2.004654e-06	0.0	1.957042e+00	2.004654e-06	0.0	2.000000e+00	2.004654e-06	0.0	-3.333300e-01	4.039182e-06	0.0	-2.932630e-01	4.039182e-06	0.0	-2.579639e-01	4.039182e-06	0.0	-2.268587e-01	4.039182e-06	0.0	-1.994419e-01	4.039182e-06	0.0	-1.752676e-01	4.039182e-06	0.0	-1.539429e-01	4.039182e-06	0.0	-1.351210e-01	4.039182e-06	0.0	-1.184959e-01	4.039182e-06	0.0	-1.037973e-01	4.039182e-06	0.0	-9.078621e-02	4.039182e-06	0.0	-7.925117e-02	4.039182e-06	0.0	-6.900461e-02	4.039182e-06	0.0	-5.987994e-02	4.039182e-06	0.0	-5.172879e-02	4.039182e-06	0.0	-4.441866e-02	4.039182e-06	0.0	-3.783070e-02	4.039182e-06	0.0	-3.185779e-02	4.039182e-06	0.0	-2.640282e-02	4.039182e-06	0.0	-2.137712e-02	4.039182e-06	0.0	-1.669897e-02	4.039182e-06	0.0	-1.229231e-02	4.039182e-06	0.0	-8.085507e-03	4.039182e-06	0.0	-4.010155e-03	4.039182e-06	0.0	-4.489824e-33	4.039182e-06	0.0	4.011888e-03	4.039182e-06	0.0	8.056205e-03	4.039182e-06	0.0	1.213423e-02	4.039182e-06	0.0	1.624727e-02	4.039182e-06	0.0	2.039667e-02	4.039182e-06	0.0	2.458382e-02	4.039182e-06	0.0	2.881016e-02	4.039182e-06	0.0	3.307715e-02	4.039182e-06	0.0	3.738632e-02	4.039182e-06	0.0	4.173924e-02	4.039182e-06	0.0	4.613751e-02	4.039182e-06	0.0	5.058283e-02	4.039182e-06	0.0	5.507691e-02	4.039182e-06	0.0	5.962155e-02	4.039182e-06	0.0	6.421860e-02	4.039182e-06	0.0	6.886998e-02	4.039182e-06	0.0	7.357766e-02	4.039182e-06	0.0	7.834372e-02	4.039182e-06	0.0	8.317028e-02	4.039182e-06	0.0	8.805957e-02	4.039182e-06	0.0	9.301388e-02	4.039182e-06	0.0	9.803561e-02	4.039182e-06	0.0	1.031273e-01	4.039182e-06	0.0	1.082914e-01	4.039182e-06	0.0	1.135307e-01	4.039182e-06	0.0	1.188480e-01	4.039182e-06	0.0	1.242462e-01	4.039182e-06	0.0	1.297284e-01	4.039182e-06	0.0	1.352978e-01	4.039182e-06	
[...]
POINT_DATA 13289

SCALARS Density double 1
LOOKUP_TABLE default
1.336156e+00	1.336137e+00	1.336155e+00	1.336144e+00	1.336151e+00	1.336151e+00	1.336165e+00	1.336165e+00	1.336172e+00	1.336178e+00	1.336187e+00	1.336193e+00	1.336202e+00	1.336210e+00	1.336220e+00	1.336230e+00	1.336243e+00	1.336256e+00	1.336271e+00	1.336288e+00	1.336314e+00	1.336349e+00	1.336437e+00	1.336675e+00	1.324403e+00	1.325503e+00	1.326347e+00	1.326629e+00	1.326720e+00	1.326747e+00	1.326752e+00	1.326750e+00	1.326745e+00	1.326739e+00	1.326732e+00	1.326724e+00	1.326716e+00	1.326708e+00	1.326700e+00	1.326693e+00	1.326686e+00	1.326679e+00	1.326673e+00	1.326666e+00	1.326660e+00	1.326655e+00	1.326649e+00	1.326644e+00	1.326639e+00	1.326634e+00	1.326630e+00	1.326625e+00	1.326621e+00	1.326617e+00	1.326612e+00	1.326609e+00	1.326605e+00	1.326601e+00	1.326597e+00	1.326594e+00	1.326590e+00	1.326588e+00	1.326584e+00	1.326581e+00	1.326577e+00	1.326575e+00	1.326571e+00	1.326569e+00	1.326565e+00	1.326563e+00	1.326559e+00	1.326558e+00	1.326554e+00	1.326552e+00	1.326548e+00	1.326547e+00	1.326543e+00	1.326541e+00	1.326538e+00	1.326537e+00	1.326532e+00	1.326531e+00	1.326528e+00	1.326527e+00	1.326522e+00	1.326522e+00	1.326518e+00	1.326517e+00	1.326512e+00	1.326512e+00	1.326508e+00	1.326508e+00	1.326503e+00	1.326503e+00	1.326498e+00	1.326498e+00	1.326493e+00	1.326493e+00	1.326489e+00	1.326489e+00	1.326483e+00	1.326484e+00	1.326479e+00	1.326479e+00	1.326473e+00	1.326475e+00	1.326470e+00	1.326470e+00	1.326463e+00	1.326466e+00	1.326460e+00	1.326460e+00	1.326453e+00	1.326457e+00	1.326450e+00	1.326450e+00	1.326443e+00	1.326447e+00	1.326441e+00	1.326441e+00	1.326434e+00	1.326440e+00	1.326434e+00	1.326434e+00	1.326429e+00	1.326433e+00	1.326428e+00	1.326425e+00	1.326424e+00	1.326428e+00	1.326422e+00	1.326421e+00	1.326419e+00	1.326423e+00	1.326418e+00	1.326417e+00	1.326445e+00	1.336156e+00	1.336137e+00	1.336155e+00	1.336144e+00	1.336151e+00	1.336151e+00	1.336165e+00	1.336165e+00	1.336172e+00	1.336178e+00	1.336187e+00	1.336193e+00	1.336202e+00	1.336210e+00	1.336220e+00	1.336230e+00	1.336243e+00	1.336256e+00	1.336271e+00	1.336288e+00	1.336314e+00	1.336350e+00	1.336438e+00	1.336672e+00	1.324451e+00	1.325513e+00	1.326352e+00	1.326634e+00	1.326725e+00	1.326751e+00	1.326756e+00	1.326754e+00	1.326749e+00	1.326743e+00	1.326735e+00	1.326727e+00	1.326719e+00	1.326711e+00	1.326704e+00	1.326696e+00	1.326689e+00	1.326682e+00	1.326676e+00	1.326669e+00	1.326663e+00	1.326658e+00	1.326652e+00	1.326647e+00	1.326642e+00	1.326637e+00	1.326632e+00	1.326628e+00	1.326623e+00	1.326619e+00	1.326615e+00	1.326611e+00	1.326607e+00	1.326604e+00	1.326600e+00	1.326597e+00	1.326593e+00	1.326590e+00	1.326586e+00	1.326583e+00	1.326579e+00	1.326577e+00	1.326573e+00	1.326571e+00	1.326567e+00	1.326565e+00	1.326561e+00	1.326560e+00	1.326556e+00	1.326554e+00	1.326550e+00	1.326549e+00	1.326545e+00	1.326543e+00	1.326540e+00	1.326538e+00	1.326534e+00	1.326533e+00	1.326529e+00	1.326528e+00	1.326524e+00	1.326523e+00	1.326519e+00	1.326519e+00	1.326514e+00	1.326514e+00	1.326510e+00	1.326509e+00	1.326504e+00	1.326504e+00	1.326500e+00	1.326500e+00	1.326494e+00	1.326495e+00	1.326490e+00	1.326490e+00	1.326485e+00	1.326486e+00	1.326481e+00	1.326481e+00	1.326475e+00	1.326477e+00	1.326471e+00	1.326472e+00	1.326465e+00	1.326468e+00	1.326461e+00	1.326461e+00	1.326454e+00	1.326458e+00	1.326451e+00	1.326452e+00	1.326445e+00	1.326449e+00	1.326442e+00	1.326442e+00	1.326436e+00	1.326441e+00	1.326435e+00	1.326436e+00	1.326430e+00	1.326434e+00	1.326429e+00	1.326426e+00	1.326425e+00	1.326429e+00	1.326423e+00	1.326422e+00	1.326420e+00	1.326424e+00	1.326419e+00	1.326418e+00	1.326446e+00	1.336156e+00	1.336137e+00	1.336155e+00	1.336144e+00	1.336151e+00	1.336151e+00	1.336165e+00	1.336165e+00	1.336172e+00	1.336178e+00	1.336186e+00	1.336193e+00	1.336202e+00	1.336210e+00	1.336220e+00	1.336230e+00	1.336243e+00	1.336256e+00	1.336271e+00	1.336288e+00	1.336314e+00	1.336350e+00	1.336438e+00	1.336672e+00	1.324587e+00	1.325532e+00	1.326366e+00	1.326648e+00	1.326739e+00	1.326764e+00	1.326769e+00	1.326766e+00	1.326760e+00	1.326754e+00	1.326746e+00	1.326738e+00	1.326730e+00	1.326721e+00	1.326713e+00	1.326706e+00	1.326698e+00	1.326691e+00	1.326684e+00	1.326678e+00	1.326672e+00	1.326666e+00	1.326660e+00	1.326655e+00	1.326650e+00	1.326645e+00	1.326640e+00	1.326636e+00	1.326631e+00	1.326627e+00	1.326622e+00	1.326619e+00	1.326614e+00	1.326611e+00	1.326607e+00	1.326604e+00	1.326600e+00	1.326597e+00	1.326593e+00	1.326590e+00	1.326586e+00	1.326583e+00	1.326580e+00	1.326578e+00	1.326573e+00	1.326572e+00	1.326568e+00	1.326566e+00	1.326562e+00	1.326560e+00	1.326556e+00	1.326555e+00	1.326551e+00	1.326549e+00	1.326545e+00	1.326544e+00	1.326540e+00	1.326539e+00	1.326535e+00	1.326534e+00	1.326530e+00	1.326529e+00	1.326525e+00	1.326524e+00	1.326519e+00	1.326519e+00	1.326515e+00	1.326514e+00	1.326509e+00	1.326509e+00	1.326505e+00	1.326505e+00	1.326499e+00	1.326500e+00	1.326495e+00	1.326495e+00	1.326490e+00	1.326491e+00	1.326485e+00	1.326485e+00	1.326479e+00	1.326481e+00	1.326475e+00	1.326476e+00	1.326469e+00	1.326472e+00	1.326466e+00	1.326466e+00	1.326458e+00	1.326462e+00	1.326455e+00	1.326456e+00	1.326449e+00	1.326453e+00	1.326446e+00	1.326446e+00	1.326440e+00	1.326445e+00	1.326439e+00	1.326439e+00	1.326434e+00	1.326438e+00	1.326433e+00	1.326430e+00	1.326428e+00	1.326432e+00	1.326427e+00	1.326425e+00	1.326423e+00	1.326427e+00	1.326423e+00	1.326422e+00	1.326450e+00	1.336156e+00	1.336137e+00	1.336155e+00	1.336144e+00	1.336151e+00	1.336151e+00	1.336165e+00	1.336165e+00	1.336172e+00	1.336178e+00	1.336186e+00	1.336193e+00	1.336202e+00	1.336210e+00	1.336220e+00	1.336230e+00	1.336243e+00	1.336256e+00	1.336271e+00	1.336288e+00	1.336314e+00	1.336350e+00	1.336438e+00	1.336673e+00	1.324797e+00	1.325567e+00	1.326391e+00	1.326673e+00	1.326763e+00	1.326787e+00	1.326790e+00	1.326787e+00	1.326780e+00	1.326773e+00	1.326765e+00	1.326756e+00	1.326747e+00	1.326739e+00	1.326730e+00	1.326722e+00	1.326714e+00	1.326707e+00	1.326700e+00	1.326693e+00	1.326687e+00	1.326681e+00	1.326675e+00	1.326669e+00	1.326664e+00	1.326659e+00	1.326653e+00	1.326649e+00	1.326644e+00	1.326640e+00	1.326635e+00	1.326631e+00	1.326627e+00	1.326623e+00	1.326619e+00	1.326616e+00	1.326611e+00	1.326608e+00	1.326604e+00	1.326602e+00	1.326597e+00	1.326595e+00	1.326591e+00	1.326589e+00	1.326584e+00	1.326582e+00	1.326578e+00	1.326577e+00	1.326572e+00	1.326570e+00	1.326567e+00	1.326565e+00	1.326561e+00	1.326559e+00	1.326555e+00	1.326554e+00	1.326550e+00	1.326548e+00	1.326545e+00	1.326543e+00	1.326539e+00	1.326538e+00	1.326534e+00	1.326533e+00	1.326529e+00	1.326528e+00	1.326524e+00	1.326523e+00	1.326518e+00	1.326518e+00	1.326513e+00	1.326513e+00	1.326508e+00	1.326508e+00	1.326503e+00	1.326503e+00	1.326498e+00	1.326499e+00	1.326493e+00	1.326493e+00	1.326487e+00	1.326489e+00	1.326483e+00	1.326484e+00	1.326477e+00	1.326479e+00	1.326473e+00	1.326473e+00	1.326465e+00	1.326469e+00	1.326462e+00	1.326463e+00	1.326456e+00	1.326459e+00	1.326453e+00	1.326453e+00	1.326446e+00	1.326451e+00	1.326445e+00	1.326446e+00	1.326440e+00	1.326444e+00	1.326439e+00	1.326436e+00	1.326435e+00	1.326438e+00	1.326433e+00	1.326431e+00	1.326429e+00	1.326433e+00	1.326428e+00	1.326428e+00	1.326456e+00	1.336156e+00	1.336137e+00	1.336155e+00	1.336144e+00	1.336151e+00	1.336151e+00	1.336165e+00	1.336165e+00	1.336172e+00	1.336178e+00	1.336186e+00	1.336193e+00	1.336202e+00	1.336210e+00	1.336220e+00	1.336230e+00	1.336243e+00	1.336256e+00	1.336271e+00	1.336288e+00	1.336314e+00	1.336350e+00	1.336439e+00	1.336676e+00	1.325075e+00	1.325620e+00	1.326428e+00	1.326710e+00	1.326799e+00	1.326822e+00	1.326823e+00	1.326818e+00	1.326810e+00	1.326802e+00	1.326793e+00	1.326783e+00	1.326773e+00	1.326764e+00	1.326755e+00	1.326746e+00	1.326738e+00	1.326730e+00	1.326723e+00	1.326716e+00	1.326709e+00	1.326702e+00	1.326696e+00	1.326690e+00	1.326684e+00	1.326679e+00	1.326674e+00	1.326669e+00	1.326663e+00	1.326659e+00	1.326654e+00	1.326650e+00	1.326645e+00	1.326641e+00	1.326637e+00	1.326634e+00	1.326629e+00	1.326626e+00	1.326622e+00	1.326619e+00	1.326614e+00	1.326611e+00	1.326608e+00	1.326605e+00	1.326601e+00	1.326599e+00	1.326594e+00	1.326592e+00	1.326588e+00	1.326586e+00	1.326582e+00	1.326580e+00	1.326576e+00	1.326574e+00	1.326570e+00	1.326569e+00	1.326564e+00	1.326563e+00	1.326559e+00	1.326558e+00	1.326553e+00	1.326552e+00	1.326548e+00	1.326547e+00	1.326542e+00	1.326541e+00	1.326537e+00	1.326536e+00	1.326531e+00	1.326531e+00	1.326526e+00	1.326526e+00	1.326520e+00	1.326521e+00	1.326516e+00	1.326516e+00	1.326510e+00	1.326511e+00	1.326505e+00	1.326505e+00	1.326499e+00	1.326500e+00	1.326494e+00	1.326495e+00	1.326488e+00	1.326490e+00	1.326484e+00	1.326484e+00	1.326476e+00	1.326480e+00	1.326473e+00	1.326473e+00	1.326466e+00	1.326469e+00	1.326463e+00	1.326463e+00	1.326456e+00	1.326461e+00	1.326455e+00	1.326455e+00	1.326449e+00	1.326453e+00	1.326448e+00	1.326445e+00	1.326444e+00	1.326447e+00	1.326442e+00	1.326440e+00	1.326438e+00	1.326442e+00	1.326437e+00	1.326436e+00	1.326465e+00	1.336156e+00	1.336137e+00	1.336155e+00	1.336144e+00	1.336151e+00	1.336151e+00	1.336165e+00	1.336165e+00	1.336172e+00	1.336178e+00	1.336186e+00	1.336193e+00	1.336202e+00	1.336210e+00	1.336220e+00	1.336230e+00	1.336243e+00	1.336256e+00	1.336271e+00	1.336288e+00	1.336314e+00	1.336350e+00	1.336439e+00	1.336679e+00	1.325414e+00	1.325696e+00	1.326481e+00	1.326761e+00	1.326848e+00	1.326869e+00	1.326868e+00	1.326861e+00	1.326851e+00	1.326841e+00	1.326831e+00	1.326820e+00	1.326810e+00	1.326799e+00	1.326789e+00	1.326780e+00	1.326771e+00	1.326763e+00	1.326754e+00	1.326747e+00	1.326739e+00	1.326732e+00	1.326725e+00	1.326719e+00	1.326713e+00	1.326707e+00	1.326701e+00	1.326696e+00	1.326690e+00	1.326686e+00	1.326680e+00	1.326676e+00	1.326671e+00	1.326667e+00	1.326662e+00	1.326658e+00	1.326654e+00	1.326650e+00	1.326646e+00	1.326642e+00	1.326638e+00	1.326635e+00	1.326631e+00	1.326628e+00	1.326623e+00	1.326621e+00	1.326616e+00	1.326614e+00	1.326610e+00	1.326607e+00	1.326603e+00	1.326601e+00	1.326597e+00	1.326595e+00	1.326591e+00	1.326589e+00	1.326584e+00	1.326583e+00	1.326579e+00	1.326577e+00	1.326573e+00	1.326571e+00	1.326567e+00	1.326566e+00	1.326561e+00	1.326560e+00	1.326555e+00	1.326555e+00	1.326549e+00	1.326549e+00	1.326544e+00	1.326543e+00	1.326538e+00	1.326538e+00	1.326533e+00	1.326532e+00	1.326527e+00	1.326527e+00	1.326522e+00	1.326521e+00	1.326515e+00	1.326516e+00	1.326510e+00	1.326510e+00	1.326503e+00	1.326506e+00	1.326499e+00	1.326499e+00	1.326491e+00	1.326494e+00	1.326487e+00	1.326487e+00	1.326480e+00	1.326483e+00	1.326477e+00	1.326476e+00	1.326469e+00	1.326474e+00	1.326468e+00	1.326469e+00	1.326463e+00	1.326466e+00	1.326461e+00	1.326458e+00	1.326456e+00	1.326460e+00	1.326455e+00	1.326453e+00	1.326450e+00	1.326455e+00	1.326449e+00	1.326449e+00	1.326477e+00	1.336156e+00	1.336137e+00	1.336155e+00	1.336144e+00	1.336151e+00	1.336151e+00	1.336164e+00	1.336165e+00	1.336172e+00	1.336178e+00	1.336186e+00	1.336193e+00	1.336202e+00	1.336210e+00	1.336220e+00	1.336230e+00	1.336243e+00	1.336256e+00	1.336271e+00	1.336288e+00	1.336314e+00	1.336350e+00	1.336440e+00	1.336684e+00	1.325816e+00	1.325801e+00	1.326552e+00	1.326829e+00	1.326914e+00	1.326932e+00	1.326928e+00	1.326918e+00	1.326906e+00	1.326894e+00	1.326882e+00	1.326870e+00	1.326858e+00	1.326847e+00	1.326835e+00	1.326825e+00	1.326815e+00	1.326806e+00	1.326797e+00	1.326788e+00	1.326780e+00	1.326772e+00	1.326765e+00	1.326758e+00	1.326751e+00	1.326745e+00	1.326738e+00	1.326733e+00	1.326727e+00	1.326721e+00	1.326716e+00	1.326711e+00	1.326705e+00	1.326701e+00	1.326696e+00	1.326691e+00	1.326686e+00	1.326682e+00	1.326678e+00	1.326674e+00	1.326669e+00	1.326666e+00	1.326661e+00	1.326658e+00	1.326653e+00	1.326651e+00	1.326646e+00	1.326643e+00	1.326639e+00	1.326636e+00	1.326632e+00	1.326629e+00	1.326625e+00	1.326622e+00	1.326618e+00	1.326616e+00	1.326611e+00	1.326609e+00	1.326605e+00	1.326603e+00	1.326599e+00	1.326597e+00	1.326592e+00	1.326591e+00	1.326586e+00	1.326585e+00	1.326580e+00	1.326579e+00	1.326574e+00	1.326573e+00	1.326568e+00	1.326567e+00	1.326561e+00	1.326561e+00	1.326556e+00	1.326555e+00	1.326549e+00	1.326549e+00	1.326544e+00	1.326543e+00	1.326536e+00	1.326537e+00	1.326531e+00	1.326531e+00	1.326524e+00	1.326526e+00	1.326519e+00	1.326518e+00	1.326510e+00	1.326514e+00	1.326506e+00	1.326506e+00	1.326499e+00	1.326502e+00	1.326495e+00	1.326494e+00	1.326488e+00	1.326492e+00	1.326486e+00	1.326486e+00	1.326480e+00	1.326484e+00	1.326478e+00	1.326475e+00	1.326473e+00	1.326477e+00	1.326471e+00	1.326469e+00	1.326467e+00	1.326471e+00	1.326466e+00	1.326465e+00	1.326493e+00	1.336156e+00	1.336138e+00	1.336155e+00	1.336144e+00	1.336151e+00	1.336151e+00	1.336164e+00	1.336165e+00	1.336172e+00	1.336178e+00	1.336186e+00	1.336193e+00	1.336202e+00	1.336210e+00	1.336220e+00	1.336230e+00	1.336243e+00	1.336256e+00	1.336271e+00	1.336288e+00	1.336313e+00	1.336351e+00	1.336440e+00	1.336690e+00	1.326277e+00	1.325941e+00	1.326646e+00	1.326918e+00	1.327000e+00	1.327013e+00	1.327006e+00	1.326992e+00	1.326978e+00	1.326963e+00	1.326949e+00	1.326935e+00	1.326921e+00	1.326908e+00	1.326895e+00	1.326883e+00	1.326872e+00	1.326862e+00	1.326852e+00	1.326842e+00	1.326833e+00	1.326824e+00	1.326816e+00	1.326808e+00	1.326801e+00	1.326794e+00	1.326787e+00	1.326780e+00	1.326774e+00	1.326768e+00	1.326761e+00	1.326756e+00	1.326750e+00	1.326745e+00	1.326739e+00	1.326735e+00	1.326729e+00	1.326725e+00	1.326719e+00	1.326715e+00	1.326710e+00	1.326706e+00	1.326701e+00	1.326698e+00	1.326693e+00	1.326690e+00	1.326684e+00	1.326682e+00	1.326676e+00	1.326674e+00	1.326669e+00	1.326666e+00	1.326661e+00	1.326659e+00	1.326654e+00	1.326652e+00	1.326646e+00	1.326644e+00	1.326640e+00	1.326638e+00	1.326632e+00	1.326630e+00	1.326626e+00	1.326624e+00	1.326619e+00	1.326617e+00	1.326612e+00	1.326611e+00	1.326605e+00	1.326604e+00	1.326599e+00	1.326598e+00	1.326592e+00	1.326591e+00	1.326586e+00	1.326585e+00	1.326578e+00	1.326578e+00	1.326572e+00	1.326571e+00	1.326564e+00	1.326565e+00	1.326559e+00	1.326559e+00	1.326551e+00	1.326553e+00	1.326545e+00	1.326545e+00	1.326536e+00	1.326539e+00	1.326532e+00	1.326531e+00	1.326523e+00	1.326526e+00	1.326519e+00	1.326518e+00	1.326511e+00	1.326515e+00	1.326509e+00	1.326509e+00	1.326503e+00	1.326506e+00	1.326501e+00	1.326498e+00	1.326496e+00	1.326499e+00	1.326493e+00	1.326491e+00	1.326489e+00	1.326492e+00	1.326487e+00	1.326486e+00	1.326514e+00	1.336156e+00	1.336138e+00	1.336155e+00	1.336144e+00	1.336151e+00	1.336151e+00	1.336164e+00	1.336165e+00	1.336172e+00	1.336178e+00	1.336186e+00	1.336193e+00	1.336202e+00	1.336210e+00	1.336220e+00	1.336230e+00	1.336243e+00	1.336256e+00	1.336271e+00	1.336288e+00	1.336313e+00	1.336351e+00	1.336441e+00	1.336696e+00	1.326798e+00	1.326123e+00	1.326767e+00	1.327030e+00	1.327108e+00	1.327117e+00	1.327104e+00	1.327087e+00	1.327068e+00	1.327051e+00	1.327034e+00	1.327017e+00	1.327001e+00	1.326986e+00	1.326972e+00	1.326958e+00	1.326945e+00	1.326933e+00	1.326922e+00	1.326911e+00	1.326901e+00	1.326891e+00	1.326882e+00	1.326873e+00	1.326864e+00	1.326856e+00	1.326849e+00	1.326841e+00	1.326834e+00	1.326827e+00	1.326820e+00	1.326814e+00	1.326807e+00	1.326802e+00	1.326795e+00	1.326790e+00	1.326784e+00	1.326779e+00	1.326773e+00	1.326769e+00	1.326763e+00	1.326758e+00	1.326753e+00	1.326749e+00	1.326743e+00	1.326740e+00	1.326734e+00	1.326731e+00	1.326725e+00	1.326722e+00	1.326717e+00	1.326713e+00	1.326708e+00	1.326705e+00	1.326700e+00	1.326697e+00	1.326692e+00	1.326689e+00	1.326684e+00	1.326682e+00	1.326676e+00	1.326674e+00	1.326669e+00	1.326666e+00	1.326661e+00	1.326659e+00	1.326654e+00	1.326652e+00	1.326646e+00	1.326644e+00	1.326639e+00	1.326637e+00	1.326631e+00	1.326630e+00	1.326624e+00	1.326623e+00	1.326616e+00	1.326616e+00	1.326609e+00	1.326608e+00	1.326601e+00	1.326601e+00	1.326594e+00	1.326594e+00	1.326586e+00	1.326587e+00	1.326579e+00	1.326578e+00	1.326570e+00	1.326572e+00	1.326564e+00	1.326563e+00	1.326555e+00	1.326558e+00	1.326550e+00	1.326549e+00	1.326542e+00	1.326546e+00	1.326539e+00	1.326539e+00	1.326532e+00	1.326536e+00	1.326530e+00	1.326526e+00	1.326524e+00	1.326527e+00	1.326522e+00	1.326519e+00	1.326516e+00	1.326520e+00	1.326515e+00	1.326513e+00	1.326541e+00	1.336156e+00	1.336138e+00	1.336155e+00	1.336144e+00	1.336151e+00	1.336151e+00	1.336164e+00	1.336165e+00	1.336172e+00	1.336178e+00	1.336186e+00	1.336193e+00	1.336202e+00	1.336210e+00	1.336220e+00	1.336230e+00	1.336243e+00	1.336256e+00	1.336271e+00	1.336288e+00	1.336313e+00	1.336352e+00	1.336441e+00	1.336703e+00	1.327375e+00	1.326353e+00	1.326918e+00	1.327168e+00	1.327242e+00	1.327244e+00	1.327226e+00	1.327203e+00	1.327181e+00	1.327159e+00	1.327139e+00	1.327119e+00	1.327101e+00	1.327083e+00	1.327067e+00	1.327051e+00	1.327036e+00	1.327023e+00	1.327010e+00	1.326997e+00	1.326986e+00	1.326975e+00	1.326964e+00	1.326954e+00	1.326944e+00	1.326935e+00	1.326926e+00	1.326918e+00	1.326909e+00	1.326902e+00	1.326894e+00	1.326887e+00	1.326879e+00	1.326873e+00	1.326866e+00	1.326860e+00	1.326853e+00	1.326847e+00	1.326841e+00	1.326835e+00	1.326829e+00	1.326824e+00	1.326818e+00	1.326813e+00	1.326807e+00	1.326803e+00	1.326797e+00	1.326792e+00	1.326786e+00	1.326782e+00	1.326777e+00	1.326773e+00	1.326767e+00	1.326764e+00	1.326758e+00	1.326755e+00	1.326749e+00	1.326746e+00	1.326740e+00	1.326737e+00	1.326731e+00	1.326728e+00	1.326723e+00	1.326720e+00	1.326714e+00	1.326712e+00	1.326706e+00	1.326704e+00	1.326697e+00	1.326695e+00	1.326689e+00	1.326687e+00	1.326680e+00	1.326679e+00	1.326673e+00	1.326671e+00	1.326664e+00	1.326663e+00	1.326656e+00	1.326655e+00	1.326647e+00	1.326647e+00	1.326640e+00	1.326638e+00	1.326630e+00	1.326631e+00	1.326623e+00	1.326621e+00	1.326612e+00	1.326614e+00	1.326606e+00	1.326604e+00	1.326596e+00	1.326598e+00	1.326590e+00	1.326588e+00	1.326581e+00	1.326584e+00	1.326578e+00	1.326577e+00	1.326570e+00	1.326573e+00	1.326567e+00	1.326563e+00	1.326561e+00	1.326563e+00	1.326558e+00	1.326555e+00	1.326552e+00	1.326555e+00	1.326550e+00	1.326548e+00	1.326576e+00	1.336156e+00	1.336138e+00	1.336154e+00	1.336144e+00	1.336151e+00	1.336151e+00	1.336164e+00	1.336165e+00	1.336172e+00	1.336178e+00	1.336186e+00	1.336193e+00	1.336202e+00	1.336210e+00	1.336220e+00	1.336230e+00	1.336243e+00	1.336256e+00	1.336271e+00	1.336288e+00	1.336313e+00	1.336352e+00	1.336442e+00	1.336710e+00	1.328001e+00	1.326633e+00	1.327100e+00	1.327333e+00	1.327399e+00	1.327396e+00	1.327371e+00	1.327343e+00	1.327315e+00	1.327289e+00	1.327265e+00	1.327242e+00	1.327221e+00	1.327201e+00	1.327182e+00	1.327164e+00	1.327147e+00	1.327131e+00	1.327116e+00	1.327102e+00	1.327089e+00	1.327076e+00	1.327064e+00	1.327053e+00	1.327041e+00	1.327031e+00	1.327021e+00	1.327011e+00	1.327002e+00	1.326993e+00	1.326984e+00	1.326976e+00	1.326968e+00	1.326960e+00	1.326952e+00	1.326945e+00	1.326938e+00	1.326931e+00	1.326924e+00	1.326918e+00	1.326910e+00	1.326904e+00	1.326898e+00	1.326892e+00	1.326885e+00	1.326880e+00	1.326874e+00	1.326869e+00	1.326862e+00	1.326858e+00	1.326851e+00	1.326847e+00	1.326840e+00	1.326836e+00	1.326830e+00	1.326826e+00	1.326820e+00	1.326816e+00	1.326810e+00	1.326806e+00	1.326800e+00	1.326796e+00	1.326790e+00	1.326787e+00	1.326780e+00	1.326777e+00	1.326771e+00	1.326768e+00	1.326761e+00	1.326759e+00	1.326752e+00	1.326749e+00	1.326742e+00	1.326740e+00	1.326734e+00	1.326731e+00	1.326724e+00	1.326722e+00	1.326715e+00	1.326712e+00	1.326704e+00	1.326703e+00	1.326696e+00	1.326694e+00	1.326685e+00	1.326685e+00	1.326677e+00	1.326674e+00	1.326665e+00	1.326666e+00	1.326657e+00	1.326655e+00	1.326646e+00	1.326648e+00	1.326640e+00	1.326638e+00	1.326630e+00	1.326632e+00	1.326626e+00	1.326624e+00	1.326617e+00	1.326620e+00	1.326613e+00	1.326609e+00	1.326606e+00	1.326609e+00	1.326603e+00	1.326600e+00	1.326597e+00	1.326600e+00	1.326594e+00	1.326592e+00	1.326620e+00	1.336155e+00	1.336138e+00	1.336154e+00	1.336144e+00	1.336151e+00	1.336151e+00	1.336164e+00	1.336165e+00	1.336172e+00	1.336178e+00	1.336186e+00	1.336193e+00	1.336201e+00	1.336210e+00	1.336220e+00	1.336230e+00	1.336243e+00	1.336256e+00	1.336271e+00	1.336288e+00	1.336313e+00	1.336353e+00	1.336442e+00	1.336718e+00	1.328667e+00	1.326967e+00	1.32731