# vtk DataFile Version 3.0
vtk output
ASCII
DATASET UNSTRUCTURED_GRID
POINTS 113 double
0.000000e+00	2.220446e-16	0.0	4.011888e-03	2.220446e-16	0.0	8.056205e-03	2.220446e-16	0.0	1.213423e-02	2.220446e-16	0.0	1.624727e-02	2.220446e-16	0.0	2.039667e-02	2.220446e-16	0.0	2.458382e-02	2.220446e-16	0.0	2.881016e-02	2.220446e-16	0.0	3.307715e-02	2.220446e-16	0.0	3.738632e-02	2.220446e-16	0.0	4.173924e-02	2.220446e-16	0.0	4.613751e-02	2.220446e-16	0.0	5.058283e-02	2.220446e-16	0.0	5.507691e-02	2.220446e-16	0.0	5.962155e-02	2.220446e-16	0.0	6.421860e-02	2.220446e-16	0.0	6.886998e-02	2.220446e-16	0.0	7.357766e-02	2.220446e-16	0.0	7.834372e-02	2.220446e-16	0.0	8.317028e-02	2.220446e-16	0.0	8.805957e-02	2.220446e-16	0.0	9.301388e-02	2.220446e-16	0.0	9.803561e-02	2.220446e-16	0.0	1.031273e-01	2.220446e-16	0.0	1.082914e-01	2.220446e-16	0.0	1.135307e-01	2.220446e-16	0.0	1.188480e-01	2.220446e-16	0.0	1.242462e-01	2.220446e-16	0.0	1.297284e-01	2.220446e-16	0.0	1.352978e-01	2.220446e-16	0.0	1.409576e-01	2.220446e-16	0.0	1.467113e-01	2.220446e-16	0.0	1.525626e-01	2.220446e-16	0.0	1.585153e-01	2.220446e-16	0.0	1.645732e-01	2.220446e-16	0.0	1.707407e-01	2.220446e-16	0.0	1.770220e-01	2.220446e-16	0.0	1.834217e-01	2.220446e-16	0.0	1.899446e-01	2.220446e-16	0.0	1.965957e-01	2.220446e-16	0.0	2.033804e-01	2.220446e-16	0.0	2.103042e-01	2.220446e-16	0.0	2.173729e-01	2.220446e-16	0.0	2.245927e-01	2.220446e-16	0.0	2.319702e-01	2.220446e-16	0.0	2.395121e-01	2.220446e-16	0.0	2.472258e-01	2.220446e-16	0.0	2.551188e-01	2.220446e-16	0.0	2.631993e-01	2.220446e-16	0.0	2.714757e-01	2.220446e-16	0.0	2.799573e-01	2.220446e-16	0.0	2.886535e-01	2.220446e-16	0.0	2.975746e-01	2.220446e-16	0.0	3.067315e-01	2.220446e-16	0.0	3.161355e-01	2.220446e-16	0.0	3.257991e-01	2.220446e-16	0.0	3.357352e-01	2.220446e-16	0.0	3.459577e-01	2.220446e-16	0.0	3.564816e-01	2.220446e-16	0.0	3.673226e-01	2.220446e-16	0.0	3.784979e-01	2.220446e-16	0.0	3.900256e-01	2.220446e-16	0.0	4.019253e-01	2.220446e-16	0.0	4.142179e-01	2.220446e-16	0.0	4.269261e-01	2.220446e-16	0.0	4.400740e-01	2.220446e-16	0.0	4.536880e-01	2.220446e-16	0.0	4.677963e-01	2.220446e-16	0.0	4.824296e-01	2.220446e-16	0.0	4.976210e-01	2.220446e-16	0.0	5.134066e-01	2.220446e-16	0.0	5.298255e-01	2.220446e-16	0.0	5.469203e-01	2.220446e-16	0.0	5.647377e-01	2.220446e-16	0.0	5.833284e-01	2.220446e-16	0.0	6.027481e-01	2.220446e-16	0.0	6.230582e-01	2.220446e-16	0.0	6.443259e-01	2.220446e-16	0.0	6.666254e-01	2.220446e-16	0.0	6.900390e-01	2.220446e-16	0.0	7.146577e-01	2.220446e-16	0.0	7.405826e-01	2.220446e-16	0.0	7.679266e-01	2.220446e-16	0.0	7.968158e-01	2.220446e-16	0.0	8.273920e-01	2.220446e-16	0.0	8.598143e-01	2.220446e-16	0.0	8.942629e-01	2.220446e-16	0.0	9.309419e-01	2.220446e-16	0.0	9.700840e-01	2.220446e-16	0.0	1.011955e+00	2.220446e-16	0.0	1.054914e+00	2.220446e-16	0.0	1.097872e+00	2.220446e-16	0.0	1.140831e+00	2.220446e-16	0.0	1.183789e+00	2.220446e-16	0.0	1.226748e+00	2.220446e-16	0.0	1.269706e+00	2.220446e-16	0.0	1.312665e+00	2.220446e-16	0.0	1.355623e+00	2.220446e-16	0.0	1.398581e+00	2.220446e-16	0.0	1.441540e+00	2.220446e-16	0.0	1.484498e+00	2.220446e-16	0.0	1.527457e+00	2.220446e-16	0.0	1.570415e+00	2.220446e-16	0.0	1.613374e+00	2.220446e-16	0.0	1.656332e+00	2.220446e-16	0.0	1.699291e+00	2.220446e-16	0.0	1.742249e+00	2.220446e-16	0.0	1.785208e+00	2.220446e-16	0.0	1.828166e+00	2.220446e-16	0.0	1.871125e+00	2.220446e-16	0.0	1.914083e+00	2.220446e-16	0.0	1.957042e+00	2.220446e-16	0.0	2.000000e+00	2.220446e-16	0.0	
CELLS 112	336
2	0	1	2	1	2	2	2	3	2	3	4	2	4	5	2	5	6	2	6	7	2	7	8	2	8	9	2	9	10	2	10	11	2	11	12	2	12	13	2	13	14	2	14	15	2	15	16	2	16	17	2	17	18	2	18	19	2	19	20	2	20	21	2	21	22	2	22	23	2	23	24	2	24	25	2	25	26	2	26	27	2	27	28	2	28	29	2	29	30	2	30	31	2	31	32	2	32	33	2	33	34	2	34	35	2	35	36	2	36	37	2	37	38	2	38	39	2	39	40	2	40	41	2	41	42	2	42	43	2	43	44	2	44	45	2	45	46	2	46	47	2	47	48	2	48	49	2	49	50	2	50	51	2	51	52	2	52	53	2	53	54	2	54	55	2	55	56	2	56	57	2	57	58	2	58	59	2	59	60	2	60	61	2	61	62	2	62	63	2	63	64	2	64	65	2	65	66	2	66	67	2	67	68	2	68	69	2	69	70	2	70	71	2	71	72	2	72	73	2	73	74	2	74	75	2	75	76	2	76	77	2	77	78	2	78	79	2	79	80	2	80	81	2	81	82	2	82	83	2	83	84	2	84	85	2	85	86	2	86	87	2	87	88	2	88	89	2	89	90	2	90	91	2	91	92	2	92	93	2	93	94	2	94	95	2	95	96	2	96	97	2	97	98	2	98	99	2	99	100	2	100	101	2	101	102	2	102	103	2	103	104	2	104	105	2	105	106	2	106	107	2	107	108	2	108	109	2	109	110	2	110	111	2	111	112	
CELL_TYPES 112
3	3	3	3	3	3	3	3	3	3	3	3	3	3	3	3	3	3	3	3	3	3	3	3	3	3	3	3	3	3	3	3	3	3	3	3	3	3	3	3	3	3	3	3	3	3	3	3	3	3	3	3	3	3	3	3	3	3	3	3	3	3	3	3	3	3	3	3	3	3	3	3	3	3	3	3	3	3	3	3	3	3	3	3	3	3	3	3	3	3	3	3	3	3	3	3	3	3	3	3	3	3	3	3	3	3	3	3	3	3	3	3	
POINT_DATA 113

SCALARS Density double 1
LOOKUP_TABLE default
1.324403e+00	1.325503e+00	1.326347e+00	1.326629e+00	1.326720e+00	1.326747e+00	1.326752e+00	1.326750e+00	1.326745e+00	1.326739e+00	1.326732e+00	1.326724e+00	1.326716e+00	1.326708e+00	1.326700e+00	1.326693e+00	1.326686e+00	1.326679e+00	1.326673e+00	1.326666e+00	1.326660e+00	1.326655e+00	1.326649e+00	1.326644e+00	1.326639e+00	1.326634e+00	1.326630e+00	1.326625e+00	1.326621e+00	1.326617e+00	1.326612e+00	1.326609e+00	1.326605e+00	1.326601e+00	1.326597e+00	1.326594e+00	1.326590e+00	1.326588e+00	1.326584e+00	1.326581e+00	1.326577e+00	1.326575e+00	1.326571e+00	1.326569e+00	1.326565e+00	1.326563e+00	1.326559e+00	1.326558e+00	1.326554e+00	1.326552e+00	1.326548e+00	1.326547e+00	1.326543e+00	1.326541e+00	1.326538e+00	1.326537e+00	1.326532e+00	1.326531e+00	1.326528e+00	1.326527e+00	1.326522e+00	1.326522e+00	1.326518e+00	1.326517e+00	1.326512e+00	1.326512e+00	1.326508e+00	1.326508e+00	1.326503e+00	1.326503e+00	1.326498e+00	1.326498e+00	1.326493e+00	1.326493e+00	1.326489e+00	1.326489e+00	1.326483e+00	1.326484e+00	1.326479e+00	1.326479e+00	1.326473e+00	1.326475e+00	1.326470e+00	1.326470e+00	1.326463e+00	1.326466e+00	1.326460e+00	1.326460e+00	1.326453e+00	1.326457e+00	1.326450e+00	1.326450e+00	1.326443e+00	1.326447e+00	1.326441e+00	1.326441e+00	1.326434e+00	1.326440e+00	1.326434e+00	1.326434e+00	1.326429e+00	1.326433e+00	1.326428e+00	1.326425e+00	1.326424e+00	1.326428e+00	1.326422e+00	1.326421e+00	1.326419e+00	1.326423e+00	1.326418e+00	1.326417e+00	1.326445e+00	
VECTORS Momentum double
0.000000e+00	0.000000e+00	0.0	0.000000e+00	0.000000e+00	0.0	0.000000e+00	0.000000e+00	0.0	0.000000e+00	0.000000e+00	0.0	0.000000e+00	0.000000e+00	0.0	0.000000e+00	0.000000e+00	0.0	0.000000e+00	0.000000e+00	0.0	0.000000e+00	0.000000e+00	0.0	0.000000e+00	0.000000e+00	0.0	0.000000e+00	0.000000e+00	0.0	0.000000e+00	0.000000e+00	0.0	0.000000e+00	0.000000e+00	0.0	0.000000e+00	0.000000e+00	0.0	0.000000e+00	0.000000e+00	0.0	0.000000e+00	0.000000e+00	0.0	0.000000e+00	0.000000e+00	0.0	0.000000e+00	0.000000e+00	0.0	0.000000e+00	0.000000e+00	0.0	0.000000e+00	0.000000e+00	0.0	0.000000e+00	0.000000e+00	0.0	0.000000e+00	0.000000e+00	0.0	0.000000e+00	0.000000e+00	0.0	0.000000e+00	0.000000e+00	0.0	0.000000e+00	0.000000e+00	0.0	0.000000e+00	0.000000e+00	0.0	0.000000e+00	0.000000e+00	0.0	0.000000e+00	0.000000e+00	0.0	0.000000e+00	0.000000e+00	0.0	0.000000e+00	0.000000e+00	0.0	0.000000e+00	0.000000e+00	0.0	0.000000e+00	0.000000e+00	0.0	0.000000e+00	0.000000e+00	0.0	0.000000e+00	0.000000e+00	0.0	0.000000e+00	0.000000e+00	0.0	0.000000e+00	0.000000e+00	0.0	0.000000e+00	0.000000e+00	0.0	0.000000e+00	0.000000e+00	0.0	0.000000e+00	0.000000e+00	0.0	0.000000e+00	0.000000e+00	0.0	0.000000e+00	0.000000e+00	0.0	0.000000e+00	0.000000e+00	0.0	0.000000e+00	0.000000e+00	0.0	0.000000e+00	0.000000e+00	0.0	0.000000e+00	0.000000e+00	0.0	0.000000e+00	0.000000e+00	0.0	0.000000e+00	0.000000e+00	0.0	0.000000e+00	0.000000e+00	0.0	0.000000e+00	0.000000e+00	0.0	0.000000e+00	0.000000e+00	0.0	0.000000e+00	0.000000e+00	0.0	0.000000e+00	0.000000e+00	0.0	0.000000e+00	0.000000e+00	0.0	0.000000e+00	0.000000e+00	0.0	0.000000e+00	0.000000e+00	0.0	0.000000e+00	0.000000e+00	0.0	0.000000e+00	0.000000e+00	0.0	0.000000e+00	0.000000e+00	0.0	0.000000e+00	0.000000e+00	0.0	0.000000e+00	0.000000e+00	0.0	0.000000e+00	0.000000e+00	0.0	0.000000e+00	0.000000e+00	0.0	0.000000e+00	0.000000e+00	0.0	0.000000e+00	0.000000e+00	0.0	0.000000e+00	0.000000e+00	0.0	0.000000e+00	0.000000e+00	0.0	0.000000e+00	0.000000e+00	0.0	0.000000e+00	0.000000e+00	0.0	0.000000e+00	0.000000e+00	0.0	0.000000e+00	0.000000e+00	0.0	0.000000e+00	0.000000e+00	0.0	0.000000e+00	0.000000e+00	0.0	0.000000e+00	0.000000e+00	0.0	0.000000e+00	0.000000e+00	0.0	0.000000e+00	0.000000e+00	0.0	0.000000e+00	0.000000e+00	0.0	0.000000e+00	0.000000e+00	0.0	0.000000e+00	0.000000e+00	0.0	0.000000e+00	0.000000e+00	0.0	0.000000e+00	0.000000e+00	0.0	0.000000e+00	0.000000e+00	0.0	0.000000e+00	0.000000e+00	0.0	0.000000e+00	0.000000e+00	0.0	0.000000e+00	0.000000e+00	0.0	0.000000e+00	0.000000e+00	0.0	0.000000e+00	0.000000e+00	0.0	0.000000e+00	0.000000e+00	0.0	0.000000e+00	0.000000e+00	0.0	0.000000e+00	0.000000e+00	0.0	0.000000e+00	0.000000e+00	0.0	0.000000e+00	0.000000e+00	0.0	0.000000e+00	0.000000e+00	0.0	0.000000e+00	0.000000e+00	0.0	0.000000e+00	0.000000e+00	0.0	0.000000e+00	0.000000e+00	0.0	0.000000e+00	0.000000e+00	0.0	0.000000e+00	0.000000e+00	0.0	0.000000e+00	0.000000e+00	0.0	0.000000e+00	0.000000e+00	0.0	0.000000e+00	0.000000e+00	0.0	0.000000e+00	0.000000e+00	0.0	0.000000e+00	0.000000e+00	0.0	0.000000e+00	0.000000e+00	0.0	0.000000e+00	0.000000e+00	0.0	0.000000e+00	0.000000e+00	0.0	0.000000e+00	0.000000e+00	0.0	0.000000e+00	0.000000e+00	0.0	0.000000e+00	0.000000e+00	0.0	0.000000e+00	0.000000e+00	0.0	0.000000e+00	0.000000e+00	0.0	0.000000e+00	0.000000e+00	0.0	0.000000e+00	0.000000e+00	0.0	0.000000e+00	0.000000e+00	0.0	0.000000e+00	0.000000e+00	0.0	
SCALARS Energy double 1
LOOKUP_TABLE default
2.877386e+05	2.876547e+05	2.876828e+05	2.876801e+05	2.876797e+05	2.876780e+05	2.876764e+05	2.876750e+05	2.876738e+05	2.876727e+05	2.876716e+05	2.876707e+05	2.876698e+05	2.876689e+05	2.876682e+05	2.876674e+05	2.876667e+05	2.876660e+05	2.876654e+05	2.876648e+05	2.876642e+05	2.876636e+05	2.876631e+05	2.876625e+05	2.876620e+05	2.876615e+05	2.876611e+05	2.876606e+05	2.876602e+05	2.876597e+05	2.876593e+05	2.876589e+05	2.876585e+05	2.876581e+05	2.876577e+05	2.876573e+05	2.876569e+05	2.876566e+05	2.876562e+05	2.876558e+05	2.876555e+05	2.876551e+05	2.876548e+05	2.876544e+05	2.876541e+05	2.876538e+05	2.876534e+05	2.876531e+05	2.876528e+05	2.876525e+05	2.876522e+05	2.876518e+05	2.876515e+05	2.876512e+05	2.876509e+05	2.876506e+05	2.876503e+05	2.876500e+05	2.876497e+05	2.876494e+05	2.876491e+05	2.876488e+05	2.876485e+05	2.876482e+05	2.876479e+05	2.876476e+05	2.876473e+05	2.876470e+05	2.876467e+05	2.876465e+05	2.876462e+05	2.876459e+05	2.876456e+05	2.876453e+05	2.876450e+05	2.876447e+05	2.876444e+05	2.876442e+05	2.876439e+05	2.876436e+05	2.876433e+05	2.876430e+05	2.876428e+05	2.876425e+05	2.876422e+05	2.876420e+05	2.876417e+05	2.876415e+05	2.876412e+05	2.876410e+05	2.876408e+05	2.876406e+05	2.876404e+05	2.876402e+05	2.876401e+05	2.876399e+05	2.876398e+05	2.876397e+05	2.876396e+05	2.876396e+05	2.876395e+05	2.876394e+05	2.876394e+05	2.876394e+05	2.876394e+05	2.876394e+05	2.876394e+05	2.876394e+05	2.876394e+05	2.876396e+05	2.876398e+05	2.876396e+05	2.876503e+05	
SCALARS Turb_Kin_Energy double 1
LOOKUP_TABLE default
1.000000e-10	1.000000e-10	1.000000e-10	1.000000e-10	1.000000e-10	1.000000e-10	1.000000e-10	1.000000e-10	1.000000e-10	1.000000e-10	1.000000e-10	1.000000e-10	1.000000e-10	1.000000e-10	1.000000e-10	1.000000e-10	1.000000e-10	1.000000e-10	1.000000e-10	1.000000e-10	1.000000e-10	1.000000e-10	1.000000e-10	1.000000e-10	1.000000e-10	1.000000e-10	1.000000e-10	1.000000e-10	1.000000e-10	1.000000e-10	1.000000e-10	1.000000e-10	1.000000e-10	1.000000e-10	1.000000e-10	1.000000e-10	1.000000e-10	1.000000e-10	1.000000e-10	1.000000e-10	1.000000e-10	1.000000e-10	1.000000e-10	1.000000e-10	1.000000e-10	1.000000e-10	1.000000e-10	1.000000e-10	1.000000e-10	1.000000e-10	1.000000e-10	1.000000e-10	1.000000e-10	1.000000e-10	1.000000e-10	1.000000e-10	1.000000e-10	1.000000e-10	1.000000e-10	1.000000e-10	1.000000e-10	1.000000e-10	1.000000e-10	1.000000e-10	1.000000e-10	1.000000e-10	1.000000e-10	1.000000e-10	1.000000e-10	1.000000e-10	1.000000e-10	1.000000e-10	1.000000e-10	1.000000e-10	1.000000e-10	1.000000e-10	1.000000e-10	1.000000e-10	1.000000e-10	1.000000e-10	1.000000e-10	1.000000e-10	1.000000e-10	1.000000e-10	1.000000e-10	1.000000e-10	1.000000e-10	1.000000e-10	1.000000e-10	1.000000e-10	1.000000e-10	1.000000e-10	1.000000e-10	1.000000e-10	1.000000e-10	1.000000e-10	1.000000e-10	1.000000e-10	1.000000e-10	1.000000e-10	1.000000e-10	1.000000e-10	1.000000e-10	1.000000e-10	1.000000e-10	1.000000e-10	1.000000e-10	1.000000e-10	1.000000e-10	1.000000e-10	1.000000e-10	1.000000e-10	1.000000e-10	
SCALARS Omega double 1
LOOKUP_TABLE default
2.794055e+09	2.789334e+09	2.786403e+09	2.785336e+09	2.784997e+09	2.784885e+09	2.784855e+09	2.784851e+09	2.784861e+09	2.784875e+09	2.784894e+09	2.784916e+09	2.784938e+09	2.784961e+09	2.784984e+09	2.785006e+09	2.785027e+09	2.785047e+09	2.785067e+09	2.785085e+09	2.785103e+09	2.785119e+09	2.785136e+09	2.785151e+09	2.785167e+09	2.785180e+09	2.785194e+09	2.785207e+09	2.785221e+09	2.785231e+09	2.785245e+09	2.785254e+09	2.785268e+09	2.785277e+09	2.785289e+09	2.785297e+09	2.785309e+09	2.785317e+09	2.785328e+09	2.785335e+09	2.785347e+09	2.785354e+09	2.785364e+09	2.785369e+09	2.785382e+09	2.785386e+09	2.785399e+09	2.785402e+09	2.785415e+09	2.785419e+09	2.785430e+09	2.785433e+09	2.785445e+09	2.785448e+09	2.785460e+09	2.785462e+09	2.785475e+09	2.785477e+09	2.785488e+09	2.785490e+09	2.785503e+09	2.785504e+09	2.785517e+09	2.785517e+09	2.785532e+09	2.785531e+09	2.785544e+09	2.785543e+09	2.785559e+09	2.785557e+09	2.785571e+09	2.785569e+09	2.785587e+09	2.785583e+09	2.785598e+09	2.785595e+09	2.785614e+09	2.785608e+09	2.785625e+09	2.785622e+09	2.785643e+09	2.785634e+09	2.785652e+09	2.785648e+09	2.785671e+09	2.785658e+09	2.785680e+09	2.785678e+09	2.785704e+09	2.785686e+09	2.785710e+09	2.785707e+09	2.785732e+09	2.785715e+09	2.785738e+09	2.785738e+09	2.785761e+09	2.785741e+09	2.785762e+09	2.785759e+09	2.785779e+09	2.785764e+09	2.785783e+09	2.785793e+09	2.785797e+09	2.785783e+09	2.785802e+09	2.785809e+09	2.785817e+09	2.785802e+09	2.785822e+09	2.785824e+09	2.785798e+09	
SCALARS Pressure double 1
LOOKUP_TABLE default
1.150954e+05	1.150619e+05	1.150731e+05	1.150720e+05	1.150719e+05	1.150712e+05	1.150706e+05	1.150700e+05	1.150695e+05	1.150691e+05	1.150687e+05	1.150683e+05	1.150679e+05	1.150676e+05	1.150673e+05	1.150670e+05	1.150667e+05	1.150664e+05	1.150662e+05	1.150659e+05	1.150657e+05	1.150654e+05	1.150652e+05	1.150650e+05	1.150648e+05	1.150646e+05	1.150644e+05	1.150642e+05	1.150641e+05	1.150639e+05	1.150637e+05	1.150636e+05	1.150634e+05	1.150632e+05	1.150631e+05	1.150629e+05	1.150628e+05	1.150626e+05	1.150625e+05	1.150623e+05	1.150622e+05	1.150621e+05	1.150619e+05	1.150618e+05	1.150616e+05	1.150615e+05	1.150614e+05	1.150612e+05	1.150611e+05	1.150610e+05	1.150609e+05	1.150607e+05	1.150606e+05	1.150605e+05	1.150604e+05	1.150602e+05	1.150601e+05	1.150600e+05	1.150599e+05	1.150598e+05	1.150596e+05	1.150595e+05	1.150594e+05	1.150593e+05	1.150592e+05	1.150590e+05	1.150589e+05	1.150588e+05	1.150587e+05	1.150586e+05	1.150585e+05	1.150583e+05	1.150582e+05	1.150581e+05	1.150580e+05	1.150579e+05	1.150578e+05	1.150577e+05	1.150575e+05	1.150574e+05	1.150573e+05	1.150572e+05	1.150571e+05	1.150570e+05	1.150569e+05	1.150568e+05	1.150567e+05	1.150566e+05	1.150565e+05	1.150564e+05	1.150563e+05	1.150562e+05	1.150562e+05	1.150561e+05	1.150560e+05	1.150560e+05	1.150559e+05	1.150559e+05	1.150559e+05	1.150558e+05	1.150558e+05	1.150558e+05	1.150558e+05	1.150558e+05	1.150557e+05	1.150557e+05	1.150557e+05	1.150557e+05	1.150558e+05	1.150558e+05	1.150559e+05	1.150559e+05	1.150601e+05	
SCALARS Temperature double 1
LOOKUP_TABLE default
3.027390e+02	3.023996e+02	3.022365e+02	3.021694e+02	3.021483e+02	3.021405e+02	3.021377e+02	3.021366e+02	3.021365e+02	3.021367e+02	3.021372e+02	3.021380e+02	3.021389e+02	3.021398e+02	3.021407e+02	3.021416e+02	3.021425e+02	3.021433e+02	3.021441e+02	3.021449e+02	3.021457e+02	3.021463e+02	3.021470e+02	3.021476e+02	3.021483e+02	3.021488e+02	3.021494e+02	3.021499e+02	3.021505e+02	3.021509e+02	3.021514e+02	3.021518e+02	3.021524e+02	3.021527e+02	3.021532e+02	3.021535e+02	3.021540e+02	3.021542e+02	3.021547e+02	3.021549e+02	3.021555e+02	3.021557e+02	3.021561e+02	3.021562e+02	3.021568e+02	3.021568e+02	3.021574e+02	3.021574e+02	3.021580e+02	3.021581e+02	3.021586e+02	3.021586e+02	3.021591e+02	3.021591e+02	3.021597e+02	3.021596e+02	3.021602e+02	3.021602e+02	3.021607e+02	3.021606e+02	3.021613e+02	3.021611e+02	3.021617e+02	3.021616e+02	3.021623e+02	3.021621e+02	3.021627e+02	3.021625e+02	3.021633e+02	3.021630e+02	3.021637e+02	3.021634e+02	3.021643e+02	3.021639e+02	3.021646e+02	3.021643e+02	3.021653e+02	3.021647e+02	3.021656e+02	3.021653e+02	3.021664e+02	3.021657e+02	3.021666e+02	3.021662e+02	3.021675e+02	3.021665e+02	3.021677e+02	3.021674e+02	3.021689e+02	3.021677e+02	3.021690e+02	3.021687e+02	3.021701e+02	3.021690e+02	3.021703e+02	3.021702e+02	3.021715e+02	3.021703e+02	3.021715e+02	3.021713e+02	3.021725e+02	3.021715e+02	3.021726e+02	3.021732e+02	3.021735e+02	3.021726e+02	3.021738e+02	3.021742e+02	3.021748e+02	3.021739e+02	3.021753e+02	3.021753e+02	3.021800e+02	
SCALARS Mach double 1
LOOKUP_TABLE default
0.000000e+00	0.000000e+00	0.000000e+00	0.000000e+00	0.000000e+00	0.000000e+00	0.000000e+00	0.000000e+00	0.000000e+00	0.000000e+00	0.000000e+00	0.000000e+00	0.000000e+00	0.000000e+00	0.000000e+00	0.000000e+00	0.000000e+00	0.000000e+00	0.000000e+00	0.000000e+00	0.000000e+00	0.000000e+00	0.000000e+00	0.000000e+00	0.000000e+00	0.000000e+00	0.000000e+00	0.000000e+00	0.000000e+00	0.000000e+00	0.000000e+00	0.000000e+00	0.000000e+00	0.000000e+00	0.000000e+00	0.000000e+00	0.000000e+00	0.000000e+00	0.000000e+00	0.000000e+00	0.000000e+00	0.000000e+00	0.000000e+00	0.000000e+00	0.000000e+00	0.000000e+00	0.000000e+00	0.000000e+00	0.000000e+00	0.000000e+00	0.000000e+00	0.000000e+00	0.000000e+00	0.000000e+00	0.000000e+00	0.000000e+00	0.000000e+00	0.000000e+00	0.000000e+00	0.000000e+00	0.000000e+00	0.000000e+00	0.000000e+00	0.000000e+00	0.000000e+00	0.000000e+00	0.000000e+00	0.000000e+00	0.000000e+00	0.000000e+00	0.000000e+00	0.000000e+00	0.000000e+00	0.000000e+00	0.000000e+00	0.000000e+00	0.000000e+00	0.000000e+00	0.000000e+00	0.000000e+00	0.000000e+00	0.000000e+00	0.000000e+00	0.000000e+00	0.000000e+00	0.000000e+00	0.000000e+00	0.000000e+00	0.000000e+00	0.000000e+00	0.000000e+00	0.000000e+00	0.000000e+00	0.000000e+00	0.000000e+00	0.000000e+00	0.000000e+00	0.000000e+00	0.000000e+00	0.000000e+00	0.000000e+00	0.000000e+00	0.000000e+00	0.000000e+00	0.000000e+00	0.000000e+00	0.000000e+00	0.000000e+00	0.000000e+00	0.000000e+00	0.000000e+00	0.000000e+00	0.000000e+00	
SCALARS Pressure_Coefficient double 1
LOOKUP_TABLE default
1.999489e-01	1.894849e-01	1.929852e-01	1.926469e-01	1.925958e-01	1.923827e-01	1.921898e-01	1.920143e-01	1.918597e-01	1.917209e-01	1.915931e-01	1.914744e-01	1.913630e-01	1.912579e-01	1.911590e-01	1.910656e-01	1.909769e-01	1.908930e-01	1.908126e-01	1.907363e-01	1.906632e-01	1.905920e-01	1.905244e-01	1.904589e-01	1.903951e-01	1.903344e-01	1.902750e-01	1.902167e-01	1.901613e-01	1.901072e-01	1.900531e-01	1.900009e-01	1.899506e-01	1.899008e-01	1.898512e-01	1.898035e-01	1.897571e-01	1.897107e-01	1.896644e-01	1.896197e-01	1.895764e-01	1.895328e-01	1.894890e-01	1.894463e-01	1.894053e-01	1.893643e-01	1.893225e-01	1.892813e-01	1.892416e-01	1.892025e-01	1.891626e-01	1.891226e-01	1.890834e-01	1.890456e-01	1.890077e-01	1.889688e-01	1.889302e-01	1.888927e-01	1.888559e-01	1.888184e-01	1.887804e-01	1.887428e-01	1.887065e-01	1.886703e-01	1.886329e-01	1.885955e-01	1.885588e-01	1.885231e-01	1.884869e-01	1.884499e-01	1.884133e-01	1.883778e-01	1.883424e-01	1.883061e-01	1.882698e-01	1.882344e-01	1.881996e-01	1.881640e-01	1.881282e-01	1.880935e-01	1.880593e-01	1.880246e-01	1.879899e-01	1.879566e-01	1.879236e-01	1.878901e-01	1.878576e-01	1.878268e-01	1.877971e-01	1.877686e-01	1.877418e-01	1.877167e-01	1.876931e-01	1.876724e-01	1.876544e-01	1.876379e-01	1.876228e-01	1.876100e-01	1.875996e-01	1.875905e-01	1.875821e-01	1.875755e-01	1.875708e-01	1.875679e-01	1.875657e-01	1.875640e-01	1.875638e-01	1.875665e-01	1.875754e-01	1.875921e-01	1.876194e-01	1.875982e-01	1.889242e-01	
VECTORS Velocity double
0.000000e+00	0.000000e+00	0.0	0.000000e+00	0.000000e+00	0.0	0.000000e+00	0.000000e+00	0.0	0.000000e+00	0.000000e+00	0.0	0.000000e+00	0.000000e+00	0.0	0.000000e+00	0.000000e+00	0.0	0.000000e+00	0.000000e+00	0.0	0.000000e+00	0.000000e+00	0.0	0.000000e+00	0.000000e+00	0.0	0.000000e+00	0.000000e+00	0.0	0.000000e+00	0.000000e+00	0.0	0.000000e+00	0.000000e+00	0.0	0.000000e+00	0.000000e+00	0.0	0.000000e+00	0.000000e+00	0.0	0.000000e+00	0.000000e+00	0.0	0.000000e+00	0.000000e+00	0.0	0.000000e+00	0.000000e+00	0.0	0.000000e+00	0.000000e+00	0.0	0.000000e+00	0.000000e+00	0.0	0.000000e+00	0.000000e+00	0.0	0.000000e+00	0.000000e+00	0.0	0.000000e+00	0.000000e+00	0.0	0.000000e+00	0.000000e+00	0.0	0.000000e+00	0.000000e+00	0.0	0.000000e+00	0.000000e+00	0.0	0.000000e+00	0.000000e+00	0.0	0.000000e+00	0.000000e+00	0.0	0.000000e+00	0.000000e+00	0.0	0.000000e+00	0.000000e+00	0.0	0.000000e+00	0.000000e+00	0.0	0.000000e+00	0.000000e+00	0.0	0.000000e+00	0.000000e+00	0.0	0.000000e+00	0.000000e+00	0.0	0.000000e+00	0.000000e+00	0.0	0.000000e+00	0.000000e+00	0.0	0.000000e+00	0.000000e+00	0.0	0.000000e+00	0.000000e+00	0.0	0.000000e+00	0.000000e+00	0.0	0.000000e+00	0.000000e+00	0.0	0.000000e+00	0.000000e+00	0.0	0.000000e+00	0.000000e+00	0.0	0.000000e+00	0.000000e+00	0.0	0.000000e+00	0.000000e+00	0.0	0.000000e+00	0.000000e+00	0.0	0.000000e+00	0.000000e+00	0.0	0.000000e+00	0.000000e+00	0.0	0.000000e+00	0.000000e+00	0.0	0.000000e+00	0.000000e+00	0.0	0.000000e+00	0.000000e+00	0.0	0.000000e+00	0.000000e+00	0.0	0.000000e+00	0.000000e+00	0.0	0.000000e+00	0.000000e+00	0.0	0.000000e+00	0.000000e+00	0.0	0.000000e+00	0.000000e+00	0.0	0.000000e+00	0.000000e+00	0.0	0.000000e+00	0.000000e+00	0.0	0.000000e+00	0.000000e+00	0.0	0.000000e+00	0.000000e+00	0.0	0.000000e+00	0.000000e+00	0.0	0.000000e+00	0.000000e+00	0.0	0.000000e+00	0.000000e+00	0.0	0.000000e+00	0.000000e+00	0.0	0.000000e+00	0.000000e+00	0.0	0.000000e+00	0.000000e+00	0.0	0.000000e+00	0.000000e+00	0.0	0.000000e+00	0.000000e+00	0.0	0.000000e+00	0.000000e+00	0.0	0.000000e+00	0.000000e+00	0.0	0.000000e+00	0.000000e+00	0.0	0.000000e+00	0.000000e+00	0.0	0.000000e+00	0.000000e+00	0.0	0.000000e+00	0.000000e+00	0.0	0.000000e+00	0.000000e+00	0.0	0.000000e+00	0.000000e+00	0.0	0.000000e+00	0.000000e+00	0.0	0.000000e+00	0.000000e+00	0.0	0.000000e+00	0.000000e+00	0.0	0.000000e+00	0.000000e+00	0.0	0.000000e+00	0.000000e+00	0.0	0.000000e+00	0.000000e+00	0.0	0.000000e+00	0.000000e+00	0.0	0.000000e+00	0.000000e+00	0.0	0.000000e+00	0.000000e+00	0.0	0.000000e+00	0.000000e+00	0.0	0.000000e+00	0.000000e+00	0.0	0.000000e+00	0.000000e+00	0.0	0.000000e+00	0.000000e+00	0.0	0.000000e+00	0.000000e+00	0.0	0.000000e+00	0.000000e+00	0.0	0.000000e+00	0.000000e+00	0.0	0.000000e+00	0.000000e+00	0.0	0.000000e+00	0.000000e+00	0.0	0.000000e+00	0.000000e+00	0.0	0.000000e+00	0.000000e+00	0.0	0.000000e+00	0.000000e+00	0.0	0.000000e+00	0.000000e+00	0.0	0.000000e+00	0.000000e+00	0.0	0.000000e+00	0.000000e+00	0.0	0.000000e+00	0.000000e+00	0.0	0.000000e+00	0.000000e+00	0.0	0.000000e+00	0.000000e+00	0.0	0.000000e+00	0.000000e+00	0.0	0.000000e+00	0.000000e+00	0.0	0.000000e+00	0.000000e+00	0.0	0.000000e+00	0.000000e+00	0.0	0.000000e+00	0.000000e+00	0.0	0.000000e+00	0.000000e+00	0.0	0.000000e+00	0.000000e+00	0.0	0.000000e+00	0.000000e+00	0.0	0.000000e+00	0.000000e+00	0.0	0.000000e+00	0.000000e+00	0.0	0.000000e+00	0.000000e+00	0.0	0.000000e+00	0.000000e+00	0.0	
SCALARS Laminar_Viscosity double 1
LOOKUP_TABLE default
1.858848e-05	1.857249e-05	1.856480e-05	1.856163e-05	1.856064e-05	1.856027e-05	1.856014e-05	1.856009e-05	1.856008e-05	1.856009e-05	1.856012e-05	1.856015e-05	1.856019e-05	1.856024e-05	1.856028e-05	1.856032e-05	1.856036e-05	1.856040e-05	1.856044e-05	1.856048e-05	1.856051e-05	1.856054e-05	1.856058e-05	1.856061e-05	1.856064e-05	1.856066e-05	1.856069e-05	1.856071e-05	1.856074e-05	1.856076e-05	1.856079e-05	1.856080e-05	1.856083e-05	1.856084e-05	1.856087e-05	1.856088e-05	1.856091e-05	1.856092e-05	1.856094e-05	1.856095e-05	1.856098e-05	1.856098e-05	1.856101e-05	1.856101e-05	1.856104e-05	1.856104e-05	1.856107e-05	1.856107e-05	1.856110e-05	1.856110e-05	1.856112e-05	1.856112e-05	1.856115e-05	1.856115e-05	1.856117e-05	1.856117e-05	1.856120e-05	1.856120e-05	1.856122e-05	1.856122e-05	1.856125e-05	1.856124e-05	1.856127e-05	1.856126e-05	1.856130e-05	1.856129e-05	1.856132e-05	1.856131e-05	1.856134e-05	1.856133e-05	1.856136e-05	1.856135e-05	1.856139e-05	1.856137e-05	1.856141e-05	1.856139e-05	1.856144e-05	1.856141e-05	1.856145e-05	1.856144e-05	1.856149e-05	1.856146e-05	1.856150e-05	1.856148e-05	1.856154e-05	1.856150e-05	1.856155e-05	1.856154e-05	1.856161e-05	1.856155e-05	1.856161e-05	1.856160e-05	1.856167e-05	1.856161e-05	1.856168e-05	1.856167e-05	1.856173e-05	1.856167e-05	1.856173e-05	1.856172e-05	1.856178e-05	1.856173e-05	1.856179e-05	1.856181e-05	1.856183e-05	1.856178e-05	1.856184e-05	1.856186e-05	1.856188e-05	1.856185e-05	1.856191e-05	1.856191e-05	1.856213e-05	
VECTORS Skin_Friction_Coefficient double
0.000000e+00	0.000000e+00	0.0	5.144177e-03	0.000000e+00	0.0	4.931387e-03	0.000000e+00	0.0	4.976567e-03	0.000000e+00	0.0	4.912250e-03	0.000000e+00	0.0	4.799109e-03	0.000000e+00	0.0	4.680838e-03	0.000000e+00	0.0	4.573640e-03	0.000000e+00	0.0	4.480267e-03	0.000000e+00	0.0	4.398680e-03	0.000000e+00	0.0	4.326513e-03	0.000000e+00	0.0	4.261472e-03	0.000000e+00	0.0	4.202086e-03	0.000000e+00	0.0	4.147377e-03	0.000000e+00	0.0	4.096733e-03	0.000000e+00	0.0	4.049608e-03	0.000000e+00	0.0	4.005587e-03	0.000000e+00	0.0	3.964315e-03	0.000000e+00	0.0	3.925489e-03	0.000000e+00	0.0	3.888839e-03	0.000000e+00	0.0	3.854132e-03	0.000000e+00	0.0	3.821138e-03	0.000000e+00	0.0	3.789620e-03	0.000000e+00	0.0	3.759467e-03	0.000000e+00	0.0	3.730589e-03	0.000000e+00	0.0	3.702897e-03	0.000000e+00	0.0	3.676289e-03	0.000000e+00	0.0	3.650673e-03	0.000000e+00	0.0	3.625964e-03	0.000000e+00	0.0	3.602103e-03	0.000000e+00	0.0	3.579010e-03	0.000000e+00	0.0	3.556631e-03	0.000000e+00	0.0	3.534919e-03	0.000000e+00	0.0	3.513830e-03	0.000000e+00	0.0	3.493306e-03	0.000000e+00	0.0	3.473311e-03	0.000000e+00	0.0	3.453816e-03	0.000000e+00	0.0	3.434789e-03	0.000000e+00	0.0	3.416187e-03	0.000000e+00	0.0	3.397984e-03	0.000000e+00	0.0	3.380165e-03	0.000000e+00	0.0	3.362704e-03	0.000000e+00	0.0	3.345566e-03	0.000000e+00	0.0	3.328730e-03	0.000000e+00	0.0	3.312189e-03	0.000000e+00	0.0	3.295924e-03	0.000000e+00	0.0	3.279910e-03	0.000000e+00	0.0	3.264123e-03	0.000000e+00	0.0	3.248560e-03	0.000000e+00	0.0	3.233209e-03	0.000000e+00	0.0	3.218052e-03	0.000000e+00	0.0	3.203066e-03	0.000000e+00	0.0	3.188245e-03	0.000000e+00	0.0	3.173581e-03	0.000000e+00	0.0	3.159065e-03	0.000000e+00	0.0	3.144678e-03	0.000000e+00	0.0	3.130408e-03	0.000000e+00	0.0	3.116248e-03	0.000000e+00	0.0	3.102192e-03	0.000000e+00	0.0	3.088225e-03	0.000000e+00	0.0	3.074336e-03	0.000000e+00	0.0	3.060512e-03	0.000000e+00	0.0	3.046749e-03	0.000000e+00	0.0	3.033041e-03	0.000000e+00	0.0	3.019379e-03	0.000000e+00	0.0	3.005746e-03	0.000000e+00	0.0	2.992126e-03	0.000000e+00	0.0	2.978473e-03	0.000000e+00	0.0	2.964819e-03	0.000000e+00	0.0	2.951159e-03	0.000000e+00	0.0	2.937487e-03	0.000000e+00	0.0	2.923793e-03	0.000000e+00	0.0	2.910076e-03	0.000000e+00	0.0	2.896315e-03	0.000000e+00	0.0	2.882502e-03	0.000000e+00	0.0	2.868627e-03	0.000000e+00	0.0	2.854685e-03	0.000000e+00	0.0	2.840660e-03	0.000000e+00	0.0	2.826540e-03	0.000000e+00	0.0	2.812311e-03	0.000000e+00	0.0	2.797968e-03	0.000000e+00	0.0	2.783492e-03	0.000000e+00	0.0	2.768866e-03	0.000000e+00	0.0	2.754080e-03	0.000000e+00	0.0	2.739119e-03	0.000000e+00	0.0	2.723963e-03	0.000000e+00	0.0	2.708598e-03	0.000000e+00	0.0	2.693007e-03	0.000000e+00	0.0	2.677165e-03	0.000000e+00	0.0	2.661016e-03	0.000000e+00	0.0	2.645185e-03	0.000000e+00	0.0	2.630040e-03	0.000000e+00	0.0	2.615542e-03	0.000000e+00	0.0	2.601644e-03	0.000000e+00	0.0	2.588314e-03	0.000000e+00	0.0	2.575519e-03	0.000000e+00	0.0	2.563223e-03	0.000000e+00	0.0	2.551391e-03	0.000000e+00	0.0	2.539987e-03	0.000000e+00	0.0	2.529001e-03	0.000000e+00	0.0	2.518401e-03	0.000000e+00	0.0	2.508160e-03	0.000000e+00	0.0	2.498247e-03	0.000000e+00	0.0	2.488654e-03	0.000000e+00	0.0	2.479351e-03	0.000000e+00	0.0	2.470341e-03	0.000000e+00	0.0	2.461609e-03	0.000000e+00	0.0	2.453169e-03	0.000000e+00	0.0	2.444977e-03	0.000000e+00	0.0	2.436886e-03	0.000000e+00	0.0	2.428690e-03	0.000000e+00	0.0	2.419924e-03	0.000000e+00	0.0	2.413767e-03	0.000000e+00	0.0	
SCALARS Heat_Flux double 1
LOOKUP_TABLE default